<VTKFile type="UnstructuredGrid">
<UnstructuredGrid>
<Piece NumberOfPoints="81" NumberOfCells="128">
<Points>
<DataArray type="Float64" Name="coordinates" NumberOfComponents="3" format="ascii">
0 0 0 
0 0.125 0 
0.125 0 0 
0.125 0.125 0 
0 0.25 0 
0.25 0 0 
0.125 0.25 0 
0.25 0.125 0 
0 0.375 0 
0.375 0 0 
0.125 0.375 0 
0.25 0.25 0 
0.375 0.125 0 
0 0.5 0 
0.5 0 0 
0.125 0.5 0 
0.25 0.375 0 
0.375 0.25 0 
0.5 0.125 0 
0 0.625 0 
0.625 0 0 
0.125 0.625 0 
0.25 0.5 0 
0.375 0.375 0 
0.5 0.25 0 
0.625 0.125 0 
0 0.75 0 
0.75 0 0 
0.125 0.75 0 
0.25 0.625 0 
0.375 0.5 0 
0.5 0.375 0 
0.625 0.25 0 
0.75 0.125 0 
0 0.875 0 
0.875 0 0 
0.125 0.875 0 
0.25 0.75 0 
0.375 0.625 0 
0.5 0.5 0 
0.625 0.375 0 
0.75 0.25 0 
0.875 0.125 0 
0 1 0 
1 0 0 
0.125 1 0 
0.25 0.875 0 
0.375 0.75 0 
0.5 0.625 0 
0.625 0.5 0 
0.75 0.375 0 
0.875 0.25 0 
1 0.125 0 
0.25 1 0 
0.375 0.875 0 
0.5 0.75 0 
0.625 0.625 0 
0.75 0.5 0 
0.875 0.375 0 
1 0.25 0 
0.375 1 0 
0.5 0.875 0 
0.625 0.75 0 
0.75 0.625 0 
0.875 0.5 0 
1 0.375 0 
0.5 1 0 
0.625 0.875 0 
0.75 0.75 0 
0.875 0.625 0 
1 0.5 0 
0.625 1 0 
0.75 0.875 0 
0.875 0.75 0 
1 0.625 0 
0.75 1 0 
0.875 0.875 0 
1 0.75 0 
0.875 1 0 
1 0.875 0 
1 1 0 
</DataArray>
</Points>
<Cells>
<DataArray type="Int32" Name="connectivity" format="ascii">
0 2 1 
1 3 4 
2 3 1 
2 5 3 
3 7 6 
3 6 4 
5 7 3 
4 6 8 
5 9 7 
6 11 10 
6 10 8 
7 11 6 
7 12 11 
9 12 7 
8 10 13 
9 14 12 
10 16 15 
10 15 13 
11 16 10 
11 17 16 
12 17 11 
12 18 17 
14 18 12 
13 15 19 
14 20 18 
15 22 21 
15 21 19 
16 22 15 
16 23 22 
17 23 16 
17 24 23 
18 24 17 
18 25 24 
20 25 18 
19 21 26 
20 27 25 
21 29 28 
21 28 26 
22 29 21 
22 30 29 
23 30 22 
23 31 30 
24 31 23 
24 32 31 
25 32 24 
25 33 32 
27 33 25 
26 28 34 
27 35 33 
28 37 36 
28 36 34 
29 37 28 
29 38 37 
30 38 29 
30 39 38 
31 39 30 
31 40 39 
32 40 31 
32 41 40 
33 41 32 
33 42 41 
35 42 33 
34 36 43 
35 44 42 
36 46 45 
36 45 43 
37 46 36 
37 47 46 
38 47 37 
38 48 47 
39 48 38 
39 49 48 
40 49 39 
40 50 49 
41 50 40 
41 51 50 
42 51 41 
42 52 51 
44 52 42 
46 53 45 
46 54 53 
47 54 46 
47 55 54 
48 55 47 
48 56 55 
49 56 48 
49 57 56 
50 57 49 
50 58 57 
51 58 50 
51 59 58 
52 59 51 
54 60 53 
54 61 60 
55 61 54 
55 62 61 
56 62 55 
56 63 62 
57 63 56 
57 64 63 
58 64 57 
58 65 64 
59 65 58 
61 66 60 
61 67 66 
62 67 61 
62 68 67 
63 68 62 
63 69 68 
64 69 63 
64 70 69 
65 70 64 
67 71 66 
67 72 71 
68 72 67 
68 73 72 
69 73 68 
69 74 73 
70 74 69 
72 75 71 
72 76 75 
73 76 72 
73 77 76 
74 77 73 
76 78 75 
76 79 78 
77 79 76 
79 80 78 
</DataArray>
<DataArray type="Int32" Name="offsets" format="ascii">
3
6
9
12
15
18
21
24
27
30
33
36
39
42
45
48
51
54
57
60
63
66
69
72
75
78
81
84
87
90
93
96
99
102
105
108
111
114
117
120
123
126
129
132
135
138
141
144
147
150
153
156
159
162
165
168
171
174
177
180
183
186
189
192
195
198
201
204
207
210
213
216
219
222
225
228
231
234
237
240
243
246
249
252
255
258
261
264
267
270
273
276
279
282
285
288
291
294
297
300
303
306
309
312
315
318
321
324
327
330
333
336
339
342
345
348
351
354
357
360
363
366
369
372
375
378
381
384
</DataArray>
<DataArray type="UInt8" Name="types" format="ascii">
5
5
5
5
5
5
5
5
5
5
5
5
5
5
5
5
5
5
5
5
5
5
5
5
5
5
5
5
5
5
5
5
5
5
5
5
5
5
5
5
5
5
5
5
5
5
5
5
5
5
5
5
5
5
5
5
5
5
5
5
5
5
5
5
5
5
5
5
5
5
5
5
5
5
5
5
5
5
5
5
5
5
5
5
5
5
5
5
5
5
5
5
5
5
5
5
5
5
5
5
5
5
5
5
5
5
5
5
5
5
5
5
5
5
5
5
5
5
5
5
5
5
5
5
5
5
5
5
</DataArray>
</Cells>
<PointData>
</PointData>
<CellData>
<DataArray type="Int32" Name="faceNums_1" NumberOfComponents="1" format="ascii">
0 
1 
2 
3 
4 
5 
6 
7 
8 
9 
10 
11 
12 
13 
14 
15 
16 
17 
18 
19 
20 
21 
22 
23 
24 
25 
26 
27 
28 
29 
30 
31 
32 
33 
34 
35 
36 
37 
38 
39 
40 
41 
42 
43 
44 
45 
46 
47 
48 
49 
50 
51 
52 
53 
54 
55 
56 
57 
58 
59 
60 
61 
62 
63 
64 
65 
66 
67 
68 
69 
70 
71 
72 
73 
74 
75 
76 
77 
78 
79 
80 
81 
82 
83 
84 
85 
86 
87 
88 
89 
90 
91 
92 
93 
94 
95 
96 
97 
98 
99 
100 
101 
102 
103 
104 
105 
106 
107 
108 
109 
110 
111 
112 
113 
114 
115 
116 
117 
118 
119 
120 
121 
122 
123 
124 
125 
126 
127 
</DataArray>
<DataArray type="Int32" Name="apf_part" NumberOfComponents="1" format="ascii">
0
0
0
0
0
0
0
0
0
0
0
0
0
0
0
0
0
0
0
0
0
0
0
0
0
0
0
0
0
0
0
0
0
0
0
0
0
0
0
0
0
0
0
0
0
0
0
0
0
0
0
0
0
0
0
0
0
0
0
0
0
0
0
0
0
0
0
0
0
0
0
0
0
0
0
0
0
0
0
0
0
0
0
0
0
0
0
0
0
0
0
0
0
0
0
0
0
0
0
0
0
0
0
0
0
0
0
0
0
0
0
0
0
0
0
0
0
0
0
0
0
0
0
0
0
0
0
0
</DataArray>
</CellData>
</Piece>
</UnstructuredGrid>
</VTKFile>
